# vtk DataFile Version 3.0
Generated by MFEM
ASCII
DATASET      STRUCTURED_GRID
DIMENSIONS 1 2 3
POINTS 2          double



0 0 0
1 0 0
POINT_DATA 2
SCALARS SCALARS           double 1



1
1
SCALARS SCALARS double 1

2
2
COLOR_SCALARS COLOR_SCALARS 3
1 1 1
2 2  2
VECTORS VECTORS double
1 1  1
2  2 2
TEXTURE_COORDINATES TEXTURE_COORDINATES1 1 double
1
2
TEXTURE_COORDINATES TEXTURE_COORDINATES2 2 double
1 1
2 2
TEXTURE_COORDINATES TEXTURE_COORDINATES3 3 double
1 1 1
2 2 2
TENSORS TENSORS double
1 1 1
1 1 1
1 1 1
2 2 2
2 2 2
2 2 2
LOOKUP_TABLE LOOKUP_TABLE 2
1 1 1 1
2 2 2 2