# vtk DataFile Version 3.0
Generated by MFEM
ASCII
DATASET      STRUCTURED_GRID
DIMENSIONS 1 2 3
POINTS 2          double



0 0 0
1 0 0
POINT_DATA 2
FIELD FieldData 2
cellIds 6 1 int
0 1 2 3 4 5
faceAttributes 6 2 float
0.0 1.0 1.0 2.0 2.0 3.0
3.0 4.0 4.0 5.0 5.0 6.0